v 0 eval {set sim_annotation {Optimum Route: 0 3 18 37 49}}
v 0 eval {set sim_annotation {The node 0 transmitting data <JP> to the node0}}
s 0.000000000 _0_ AGT  --- 0 cbr 100 [0 0 0 0] [energy 100.000000] ------- [0:1 0:0 32 0] [0] 0 0
r 0.000000000 _0_ AGT  --- 0 cbr 100 [0 0 0 0] [energy 100.000000] ------- [0:1 0:0 32 0] [0] 0 0
s 0.050000000 _0_ AGT  --- 1 cbr 100 [0 0 0 0] [energy 100.000000] ------- [0:1 0:0 32 0] [1] 0 0
r 0.050000000 _0_ AGT  --- 1 cbr 100 [0 0 0 0] [energy 100.000000] ------- [0:1 0:0 32 0] [1] 0 0
s 0.100000000 _0_ AGT  --- 2 cbr 100 [0 0 0 0] [energy 100.000000] ------- [0:1 0:0 32 0] [2] 0 0
r 0.100000000 _0_ AGT  --- 2 cbr 100 [0 0 0 0] [energy 100.000000] ------- [0:1 0:0 32 0] [2] 0 0
s 0.150000000 _0_ AGT  --- 3 cbr 100 [0 0 0 0] [energy 100.000000] ------- [0:1 0:0 32 0] [3] 0 0
r 0.150000000 _0_ AGT  --- 3 cbr 100 [0 0 0 0] [energy 100.000000] ------- [0:1 0:0 32 0] [3] 0 0
s 0.200000000 _0_ AGT  --- 4 cbr 100 [0 0 0 0] [energy 100.000000] ------- [0:1 0:0 32 0] [4] 0 0
r 0.200000000 _0_ AGT  --- 4 cbr 100 [0 0 0 0] [energy 100.000000] ------- [0:1 0:0 32 0] [4] 0 0
s 0.250000000 _0_ AGT  --- 5 cbr 100 [0 0 0 0] [energy 100.000000] ------- [0:1 0:0 32 0] [5] 0 0
r 0.250000000 _0_ AGT  --- 5 cbr 100 [0 0 0 0] [energy 100.000000] ------- [0:1 0:0 32 0] [5] 0 0
s 0.300000000 _0_ AGT  --- 6 cbr 100 [0 0 0 0] [energy 100.000000] ------- [0:1 0:0 32 0] [6] 0 0
r 0.300000000 _0_ AGT  --- 6 cbr 100 [0 0 0 0] [energy 100.000000] ------- [0:1 0:0 32 0] [6] 0 0
s 0.350000000 _0_ AGT  --- 7 cbr 100 [0 0 0 0] [energy 100.000000] ------- [0:1 0:0 32 0] [7] 0 0
r 0.350000000 _0_ AGT  --- 7 cbr 100 [0 0 0 0] [energy 100.000000] ------- [0:1 0:0 32 0] [7] 0 0
s 0.400000000 _0_ AGT  --- 8 cbr 100 [0 0 0 0] [energy 100.000000] ------- [0:1 0:0 32 0] [8] 0 0
r 0.400000000 _0_ AGT  --- 8 cbr 100 [0 0 0 0] [energy 100.000000] ------- [0:1 0:0 32 0] [8] 0 0
s 0.450000000 _0_ AGT  --- 9 cbr 100 [0 0 0 0] [energy 100.000000] ------- [0:1 0:0 32 0] [9] 0 0
r 0.450000000 _0_ AGT  --- 9 cbr 100 [0 0 0 0] [energy 100.000000] ------- [0:1 0:0 32 0] [9] 0 0
s 0.500000000 _0_ AGT  --- 10 cbr 100 [0 0 0 0] [energy 100.000000] ------- [0:1 0:0 32 0] [10] 0 0
r 0.500000000 _0_ AGT  --- 10 cbr 100 [0 0 0 0] [energy 100.000000] ------- [0:1 0:0 32 0] [10] 0 0
s 0.550000000 _0_ AGT  --- 11 cbr 100 [0 0 0 0] [energy 100.000000] ------- [0:1 0:0 32 0] [11] 0 0
r 0.550000000 _0_ AGT  --- 11 cbr 100 [0 0 0 0] [energy 100.000000] ------- [0:1 0:0 32 0] [11] 0 0
s 0.600000000 _0_ AGT  --- 12 cbr 100 [0 0 0 0] [energy 100.000000] ------- [0:1 0:0 32 0] [12] 0 0
r 0.600000000 _0_ AGT  --- 12 cbr 100 [0 0 0 0] [energy 100.000000] ------- [0:1 0:0 32 0] [12] 0 0
s 0.650000000 _0_ AGT  --- 13 cbr 100 [0 0 0 0] [energy 100.000000] ------- [0:1 0:0 32 0] [13] 0 0
r 0.650000000 _0_ AGT  --- 13 cbr 100 [0 0 0 0] [energy 100.000000] ------- [0:1 0:0 32 0] [13] 0 0
s 0.700000000 _0_ AGT  --- 14 cbr 100 [0 0 0 0] [energy 100.000000] ------- [0:1 0:0 32 0] [14] 0 0
r 0.700000000 _0_ AGT  --- 14 cbr 100 [0 0 0 0] [energy 100.000000] ------- [0:1 0:0 32 0] [14] 0 0
s 0.750000000 _0_ AGT  --- 15 cbr 100 [0 0 0 0] [energy 100.000000] ------- [0:1 0:0 32 0] [15] 0 0
r 0.750000000 _0_ AGT  --- 15 cbr 100 [0 0 0 0] [energy 100.000000] ------- [0:1 0:0 32 0] [15] 0 0
s 0.800000000 _0_ AGT  --- 16 cbr 100 [0 0 0 0] [energy 100.000000] ------- [0:1 0:0 32 0] [16] 0 0
r 0.800000000 _0_ AGT  --- 16 cbr 100 [0 0 0 0] [energy 100.000000] ------- [0:1 0:0 32 0] [16] 0 0
s 0.850000000 _0_ AGT  --- 17 cbr 100 [0 0 0 0] [energy 100.000000] ------- [0:1 0:0 32 0] [17] 0 0
r 0.850000000 _0_ AGT  --- 17 cbr 100 [0 0 0 0] [energy 100.000000] ------- [0:1 0:0 32 0] [17] 0 0
s 0.900000000 _0_ AGT  --- 18 cbr 100 [0 0 0 0] [energy 100.000000] ------- [0:1 0:0 32 0] [18] 0 0
r 0.900000000 _0_ AGT  --- 18 cbr 100 [0 0 0 0] [energy 100.000000] ------- [0:1 0:0 32 0] [18] 0 0
s 0.950000000 _0_ AGT  --- 19 cbr 100 [0 0 0 0] [energy 100.000000] ------- [0:1 0:0 32 0] [19] 0 0
r 0.950000000 _0_ AGT  --- 19 cbr 100 [0 0 0 0] [energy 100.000000] ------- [0:1 0:0 32 0] [19] 0 0
M 1.00000 0 (131.00, 119.00, 0.00), (521.03, 328.64), 0.85
M 1.00000 1 (100.00, 259.00, 0.00), (261.79, 618.50), 3.70
M 1.00000 2 (159.00, 282.00, 0.00), (648.68, 232.95), 5.94
M 1.00000 3 (258.00, 236.00, 0.00), (426.95, 312.76), 1.85
M 1.00000 4 (172.00, 201.00, 0.00), (388.07, 262.73), 2.64
M 1.00000 5 (216.00, 104.00, 0.00), (135.21, 636.75), 5.44
M 1.00000 6 (238.00, 304.00, 0.00), (812.46, 81.38), 0.15
M 1.00000 7 (121.00, 326.00, 0.00), (220.87, 572.63), 2.72
M 1.00000 8 (187.00, 365.00, 0.00), (622.31, 80.37), 6.88
M 1.00000 9 (303.00, 143.00, 0.00), (807.22, 423.29), 6.26
M 1.00000 10 (388.00, 186.00, 0.00), (773.96, 343.99), 4.00
M 1.00000 11 (344.00, 257.00, 0.00), (608.08, 607.66), 6.67
M 1.00000 12 (300.00, 328.00, 0.00), (655.89, 297.24), 5.50
M 1.00000 13 (269.00, 412.00, 0.00), (715.55, 73.17), 3.61
M 1.00000 14 (308.00, 42.00, 0.00), (380.45, 113.57), 3.96
M 1.00000 15 (394.00, 91.00, 0.00), (729.36, 616.92), 2.91
M 1.00000 16 (499.00, 106.00, 0.00), (406.61, 359.52), 4.53
M 1.00000 17 (446.00, 12.00, 0.00), (132.22, 616.52), 2.85
M 1.00000 18 (489.00, 210.00, 0.00), (340.89, 311.82), 2.39
M 1.00000 19 (421.00, 298.00, 0.00), (212.59, 158.59), 1.59
M 1.00000 20 (375.00, 378.00, 0.00), (282.12, 398.40), 1.60
M 1.00000 21 (342.00, 455.00, 0.00), (495.80, 5.64), 0.94
M 1.00000 22 (138.00, 409.00, 0.00), (653.96, 598.91), 0.84
M 1.00000 23 (213.00, 491.00, 0.00), (221.70, 196.09), 2.16
M 1.00000 24 (278.00, 569.00, 0.00), (365.89, 339.26), 4.08
M 1.00000 25 (394.00, 564.00, 0.00), (38.54, 460.70), 6.92
M 1.00000 26 (454.00, 465.00, 0.00), (234.60, 434.27), 4.64
M 1.00000 27 (487.00, 390.00, 0.00), (627.34, 460.36), 3.69
M 1.00000 28 (507.00, 304.00, 0.00), (133.29, 648.32), 0.96
M 1.00000 29 (572.00, 270.00, 0.00), (29.84, 258.70), 3.15
M 1.00000 30 (586.00, 177.00, 0.00), (479.15, 304.07), 4.22
M 1.00000 31 (573.00, 63.00, 0.00), (339.92, 224.56), 2.19
M 1.00000 32 (611.00, 383.00, 0.00), (734.59, 380.57), 6.69
M 1.00000 33 (537.00, 467.00, 0.00), (317.46, 476.84), 5.44
M 1.00000 34 (505.00, 536.00, 0.00), (751.27, 29.34), 1.15
M 1.00000 35 (637.00, 473.00, 0.00), (27.10, 37.73), 3.72
M 1.00000 36 (686.00, 342.00, 0.00), (644.00, 330.75), 4.32
M 1.00000 37 (673.00, 244.00, 0.00), (467.29, 453.28), 3.70
M 1.00000 38 (638.00, 27.00, 0.00), (472.38, 483.03), 5.40
M 1.00000 39 (657.00, 182.00, 0.00), (556.76, 69.97), 0.09
M 1.00000 40 (716.00, 96.00, 0.00), (310.38, 631.98), 0.90
M 1.00000 41 (745.00, 207.00, 0.00), (36.27, 551.30), 5.51
M 1.00000 42 (765.00, 329.00, 0.00), (60.56, 84.12), 3.16
M 1.00000 43 (728.00, 463.00, 0.00), (191.29, 5.85), 0.51
M 1.00000 44 (603.00, 543.00, 0.00), (462.49, 570.80), 2.90
M 1.00000 45 (541.00, 609.00, 0.00), (549.85, 12.12), 4.44
M 1.00000 46 (386.00, 632.00, 0.00), (354.38, 552.96), 6.58
M 1.00000 47 (705.00, 570.00, 0.00), (682.80, 356.89), 6.93
M 1.00000 48 (814.00, 462.00, 0.00), (413.58, 156.80), 4.77
M 1.00000 49 (831.00, 254.00, 0.00), (770.23, 105.13), 0.23
v 1 eval {set sim_annotation {The node 3 transmitting data <JP> to the node3}}
s 1.000000000 _0_ AGT  --- 20 cbr 100 [0 0 0 0] [energy 99.999000] ------- [0:2 3:0 32 0] [0] 0 1
r 1.000000000 _0_ RTR  --- 20 cbr 100 [0 0 0 0] [energy 99.999000] ------- [0:2 3:0 32 0] [0] 0 1
s 1.000000000 _0_ RTR  --- 0 AODV 48 [0 0 0 0] [energy 99.999000] ------- [0:255 -1:255 30 0] [0x2 1 1 [3 0] [0 4]] (REQUEST)
s 1.000535000 _0_ MAC  --- 0 AODV 100 [0 ffffffff 0 800] [energy 99.999000] ------- [0:255 -1:255 30 0] [0x2 1 1 [3 0] [0 4]] (REQUEST)
r 1.001335288 _5_ MAC  --- 0 AODV 48 [0 ffffffff 0 800] [energy 99.998995] ------- [0:255 -1:255 30 0] [0x2 1 1 [3 0] [0 4]] (REQUEST)
r 1.001335306 _4_ MAC  --- 0 AODV 48 [0 ffffffff 0 800] [energy 99.998995] ------- [0:255 -1:255 30 0] [0x2 1 1 [3 0] [0 4]] (REQUEST)
r 1.001335478 _1_ MAC  --- 0 AODV 48 [0 ffffffff 0 800] [energy 99.998995] ------- [0:255 -1:255 30 0] [0x2 1 1 [3 0] [0 4]] (REQUEST)
r 1.001335551 _2_ MAC  --- 0 AODV 48 [0 ffffffff 0 800] [energy 99.998995] ------- [0:255 -1:255 30 0] [0x2 1 1 [3 0] [0 4]] (REQUEST)
r 1.001335576 _3_ MAC  --- 0 AODV 48 [0 ffffffff 0 800] [energy 99.998995] ------- [0:255 -1:255 30 0] [0x2 1 1 [3 0] [0 4]] (REQUEST)
r 1.001335579 _9_ MAC  --- 0 AODV 48 [0 ffffffff 0 800] [energy 99.998995] ------- [0:255 -1:255 30 0] [0x2 1 1 [3 0] [0 4]] (REQUEST)
r 1.001335643 _14_ MAC  --- 0 AODV 48 [0 ffffffff 0 800] [energy 99.998995] ------- [0:255 -1:255 30 0] [0x2 1 1 [3 0] [0 4]] (REQUEST)
r 1.001335691 _7_ MAC  --- 0 AODV 48 [0 ffffffff 0 800] [energy 99.998995] ------- [0:255 -1:255 30 0] [0x2 1 1 [3 0] [0 4]] (REQUEST)
r 1.001335712 _6_ MAC  --- 0 AODV 48 [0 ffffffff 0 800] [energy 99.998995] ------- [0:255 -1:255 30 0] [0x2 1 1 [3 0] [0 4]] (REQUEST)
r 1.001360288 _5_ RTR  --- 0 AODV 48 [0 ffffffff 0 800] [energy 99.998995] ------- [0:255 -1:255 30 0] [0x2 1 1 [3 0] [0 4]] (REQUEST)
r 1.001360306 _4_ RTR  --- 0 AODV 48 [0 ffffffff 0 800] [energy 99.998995] ------- [0:255 -1:255 30 0] [0x2 1 1 [3 0] [0 4]] (REQUEST)
r 1.001360478 _1_ RTR  --- 0 AODV 48 [0 ffffffff 0 800] [energy 99.998995] ------- [0:255 -1:255 30 0] [0x2 1 1 [3 0] [0 4]] (REQUEST)
r 1.001360551 _2_ RTR  --- 0 AODV 48 [0 ffffffff 0 800] [energy 99.998995] ------- [0:255 -1:255 30 0] [0x2 1 1 [3 0] [0 4]] (REQUEST)
r 1.001360576 _3_ RTR  --- 0 AODV 48 [0 ffffffff 0 800] [energy 99.998995] ------- [0:255 -1:255 30 0] [0x2 1 1 [3 0] [0 4]] (REQUEST)
s 1.001360576 _3_ RTR  --- 0 AODV 44 [0 0 0 0] [energy 99.998995] ------- [3:255 0:255 30 0] [0x4 1 [3 4] 10.000000] (REPLY)
r 1.001360579 _9_ RTR  --- 0 AODV 48 [0 ffffffff 0 800] [energy 99.998995] ------- [0:255 -1:255 30 0] [0x2 1 1 [3 0] [0 4]] (REQUEST)
r 1.001360643 _14_ RTR  --- 0 AODV 48 [0 ffffffff 0 800] [energy 99.998995] ------- [0:255 -1:255 30 0] [0x2 1 1 [3 0] [0 4]] (REQUEST)
r 1.001360691 _7_ RTR  --- 0 AODV 48 [0 ffffffff 0 800] [energy 99.998995] ------- [0:255 -1:255 30 0] [0x2 1 1 [3 0] [0 4]] (REQUEST)
r 1.001360712 _6_ RTR  --- 0 AODV 48 [0 ffffffff 0 800] [energy 99.998995] ------- [0:255 -1:255 30 0] [0x2 1 1 [3 0] [0 4]] (REQUEST)
s 1.001502334 _5_ RTR  --- 0 AODV 48 [0 ffffffff 0 800] [energy 99.998995] ------- [5:255 -1:255 29 0] [0x2 2 1 [3 0] [0 4]] (REQUEST)
s 1.001675576 _3_ MAC  --- 0 ARP 80 [0 ffffffff 3 806] [energy 99.998995] ------- [REQUEST 3/3 0/0]
s 1.002241532 _4_ RTR  --- 0 AODV 48 [0 ffffffff 0 800] [energy 99.998992] ------- [4:255 -1:255 29 0] [0x2 2 1 [3 0] [0 4]] (REQUEST)
r 1.002315812 _6_ MAC  --- 0 ARP 28 [0 ffffffff 3 806] [energy 99.998992] ------- [REQUEST 3/3 0/0]
r 1.002315871 _11_ MAC  --- 0 ARP 28 [0 ffffffff 3 806] [energy 99.998992] ------- [REQUEST 3/3 0/0]
r 1.002315885 _4_ MAC  --- 0 ARP 28 [0 ffffffff 3 806] [energy 99.998992] ------- [REQUEST 3/3 0/0]
r 1.002315913 _12_ MAC  --- 0 ARP 28 [0 ffffffff 3 806] [energy 99.998992] ------- [REQUEST 3/3 0/0]
r 1.002315920 _9_ MAC  --- 0 ARP 28 [0 ffffffff 3 806] [energy 99.998992] ------- [REQUEST 3/3 0/0]
r 1.002315939 _2_ MAC  --- 0 ARP 28 [0 ffffffff 3 806] [energy 99.998992] ------- [REQUEST 3/3 0/0]
r 1.002316037 _5_ MAC  --- 0 ARP 28 [0 ffffffff 3 806] [energy 99.998992] ------- [REQUEST 3/3 0/0]
r 1.002316040 _10_ MAC  --- 0 ARP 28 [0 ffffffff 3 806] [energy 99.998992] ------- [REQUEST 3/3 0/0]
r 1.002316066 _8_ MAC  --- 0 ARP 28 [0 ffffffff 3 806] [energy 99.998992] ------- [REQUEST 3/3 0/0]
r 1.002316108 _1_ MAC  --- 0 ARP 28 [0 ffffffff 3 806] [energy 99.998992] ------- [REQUEST 3/3 0/0]
r 1.002316122 _7_ MAC  --- 0 ARP 28 [0 ffffffff 3 806] [energy 99.998992] ------- [REQUEST 3/3 0/0]
r 1.002316151 _0_ MAC  --- 0 ARP 28 [0 ffffffff 3 806] [energy 99.998988] ------- [REQUEST 3/3 0/0]
r 1.002316157 _19_ MAC  --- 0 ARP 28 [0 ffffffff 3 806] [energy 99.998992] ------- [REQUEST 3/3 0/0]
r 1.002316163 _13_ MAC  --- 0 ARP 28 [0 ffffffff 3 806] [energy 99.998992] ------- [REQUEST 3/3 0/0]
r 1.002316189 _20_ MAC  --- 0 ARP 28 [0 ffffffff 3 806] [energy 99.998992] ------- [REQUEST 3/3 0/0]
r 1.002316238 _15_ MAC  --- 0 ARP 28 [0 ffffffff 3 806] [energy 99.998992] ------- [REQUEST 3/3 0/0]
r 1.002316243 _14_ MAC  --- 0 ARP 28 [0 ffffffff 3 806] [energy 99.998992] ------- [REQUEST 3/3 0/0]
r 1.002316277 _22_ MAC  --- 0 ARP 28 [0 ffffffff 3 806] [energy 99.998992] ------- [REQUEST 3/3 0/0]
r 1.002316350 _18_ MAC  --- 0 ARP 28 [0 ffffffff 3 806] [energy 99.998992] ------- [REQUEST 3/3 0/0]
r 1.002316357 _21_ MAC  --- 0 ARP 28 [0 ffffffff 3 806] [energy 99.998992] ------- [REQUEST 3/3 0/0]
s 1.002405885 _4_ MAC  --- 0 AODV 100 [0 ffffffff 4 800] [energy 99.998992] ------- [4:255 -1:255 29 0] [0x2 2 1 [3 0] [0 4]] (REQUEST)
r 1.003206159 _2_ MAC  --- 0 AODV 48 [0 ffffffff 4 800] [energy 99.998987] ------- [4:255 -1:255 29 0] [0x2 2 1 [3 0] [0 4]] (REQUEST)
r 1.003206191 _0_ MAC  --- 0 AODV 48 [0 ffffffff 4 800] [energy 99.998983] ------- [4:255 -1:255 29 0] [0x2 2 1 [3 0] [0 4]] (REQUEST)
r 1.003206193 _1_ MAC  --- 0 AODV 48 [0 ffffffff 4 800] [energy 99.998987] ------- [4:255 -1:255 29 0] [0x2 2 1 [3 0] [0 4]] (REQUEST)
r 1.003206195 _3_ MAC  --- 0 AODV 48 [0 ffffffff 4 800] [energy 99.998984] ------- [4:255 -1:255 29 0] [0x2 2 1 [3 0] [0 4]] (REQUEST)
r 1.003206240 _5_ MAC  --- 0 AODV 48 [0 ffffffff 4 800] [energy 99.998987] ------- [4:255 -1:255 29 0] [0x2 2 1 [3 0] [0 4]] (REQUEST)
r 1.003206293 _6_ MAC  --- 0 AODV 48 [0 ffffffff 4 800] [energy 99.998987] ------- [4:255 -1:255 29 0] [0x2 2 1 [3 0] [0 4]] (REQUEST)
r 1.003206335 _7_ MAC  --- 0 AODV 48 [0 ffffffff 4 800] [energy 99.998987] ------- [4:255 -1:255 29 0] [0x2 2 1 [3 0] [0 4]] (REQUEST)
r 1.003206363 _9_ MAC  --- 0 AODV 48 [0 ffffffff 4 800] [energy 99.998987] ------- [4:255 -1:255 29 0] [0x2 2 1 [3 0] [0 4]] (REQUEST)
r 1.003206434 _8_ MAC  --- 0 AODV 48 [0 ffffffff 4 800] [energy 99.998987] ------- [4:255 -1:255 29 0] [0x2 2 1 [3 0] [0 4]] (REQUEST)
r 1.003206486 _12_ MAC  --- 0 AODV 48 [0 ffffffff 4 800] [energy 99.998987] ------- [4:255 -1:255 29 0] [0x2 2 1 [3 0] [0 4]] (REQUEST)
r 1.003206488 _11_ MAC  --- 0 AODV 48 [0 ffffffff 4 800] [energy 99.998987] ------- [4:255 -1:255 29 0] [0x2 2 1 [3 0] [0 4]] (REQUEST)
r 1.003206583 _14_ MAC  --- 0 AODV 48 [0 ffffffff 4 800] [energy 99.998987] ------- [4:255 -1:255 29 0] [0x2 2 1 [3 0] [0 4]] (REQUEST)
r 1.003206588 _22_ MAC  --- 0 AODV 48 [0 ffffffff 4 800] [energy 99.998987] ------- [4:255 -1:255 29 0] [0x2 2 1 [3 0] [0 4]] (REQUEST)
r 1.003206607 _10_ MAC  --- 0 AODV 48 [0 ffffffff 4 800] [energy 99.998987] ------- [4:255 -1:255 29 0] [0x2 2 1 [3 0] [0 4]] (REQUEST)
r 1.003206659 _13_ MAC  --- 0 AODV 48 [0 ffffffff 4 800] [energy 99.998987] ------- [4:255 -1:255 29 0] [0x2 2 1 [3 0] [0 4]] (REQUEST)
r 1.003206711 _15_ MAC  --- 0 AODV 48 [0 ffffffff 4 800] [energy 99.998987] ------- [4:255 -1:255 29 0] [0x2 2 1 [3 0] [0 4]] (REQUEST)
r 1.003231159 _2_ RTR  --- 0 AODV 48 [0 ffffffff 4 800] [energy 99.998987] ------- [4:255 -1:255 29 0] [0x2 2 1 [3 0] [0 4]] (REQUEST)
r 1.003231191 _0_ RTR  --- 0 AODV 48 [0 ffffffff 4 800] [energy 99.998983] ------- [4:255 -1:255 29 0] [0x2 2 1 [3 0] [0 4]] (REQUEST)
r 1.003231193 _1_ RTR  --- 0 AODV 48 [0 ffffffff 4 800] [energy 99.998987] ------- [4:255 -1:255 29 0] [0x2 2 1 [3 0] [0 4]] (REQUEST)
r 1.003231195 _3_ RTR  --- 0 AODV 48 [0 ffffffff 4 800] [energy 99.998984] ------- [4:255 -1:255 29 0] [0x2 2 1 [3 0] [0 4]] (REQUEST)
r 1.003231240 _5_ RTR  --- 0 AODV 48 [0 ffffffff 4 800] [energy 99.998987] ------- [4:255 -1:255 29 0] [0x2 2 1 [3 0] [0 4]] (REQUEST)
r 1.003231293 _6_ RTR  --- 0 AODV 48 [0 ffffffff 4 800] [energy 99.998987] ------- [4:255 -1:255 29 0] [0x2 2 1 [3 0] [0 4]] (REQUEST)
r 1.003231335 _7_ RTR  --- 0 AODV 48 [0 ffffffff 4 800] [energy 99.998987] ------- [4:255 -1:255 29 0] [0x2 2 1 [3 0] [0 4]] (REQUEST)
r 1.003231363 _9_ RTR  --- 0 AODV 48 [0 ffffffff 4 800] [energy 99.998987] ------- [4:255 -1:255 29 0] [0x2 2 1 [3 0] [0 4]] (REQUEST)
r 1.003231434 _8_ RTR  --- 0 AODV 48 [0 ffffffff 4 800] [energy 99.998987] ------- [4:255 -1:255 29 0] [0x2 2 1 [3 0] [0 4]] (REQUEST)
r 1.003231486 _12_ RTR  --- 0 AODV 48 [0 ffffffff 4 800] [energy 99.998987] ------- [4:255 -1:255 29 0] [0x2 2 1 [3 0] [0 4]] (REQUEST)
r 1.003231488 _11_ RTR  --- 0 AODV 48 [0 ffffffff 4 800] [energy 99.998987] ------- [4:255 -1:255 29 0] [0x2 2 1 [3 0] [0 4]] (REQUEST)
r 1.003231583 _14_ RTR  --- 0 AODV 48 [0 ffffffff 4 800] [energy 99.998987] ------- [4:255 -1:255 29 0] [0x2 2 1 [3 0] [0 4]] (REQUEST)
r 1.003231588 _22_ RTR  --- 0 AODV 48 [0 ffffffff 4 800] [energy 99.998987] ------- [4:255 -1:255 29 0] [0x2 2 1 [3 0] [0 4]] (REQUEST)
r 1.003231607 _10_ RTR  --- 0 AODV 48 [0 ffffffff 4 800] [energy 99.998987] ------- [4:255 -1:255 29 0] [0x2 2 1 [3 0] [0 4]] (REQUEST)
r 1.003231659 _13_ RTR  --- 0 AODV 48 [0 ffffffff 4 800] [energy 99.998987] ------- [4:255 -1:255 29 0] [0x2 2 1 [3 0] [0 4]] (REQUEST)
r 1.003231711 _15_ RTR  --- 0 AODV 48 [0 ffffffff 4 800] [energy 99.998987] ------- [4:255 -1:255 29 0] [0x2 2 1 [3 0] [0 4]] (REQUEST)
s 1.003376240 _5_ MAC  --- 0 AODV 100 [0 ffffffff 5 800] [energy 99.998987] ------- [5:255 -1:255 29 0] [0x2 2 1 [3 0] [0 4]] (REQUEST)
s 1.003706708 _7_ RTR  --- 0 AODV 48 [0 ffffffff 0 800] [energy 99.998983] ------- [7:255 -1:255 29 0] [0x2 2 1 [3 0] [0 4]] (REQUEST)
s 1.004172976 _22_ RTR  --- 0 AODV 48 [0 ffffffff 4 800] [energy 99.998983] ------- [22:255 -1:255 28 0] [0x2 3 1 [3 0] [0 4]] (REQUEST)
r 1.004176528 _0_ MAC  --- 0 AODV 48 [0 ffffffff 5 800] [energy 99.998979] ------- [5:255 -1:255 29 0] [0x2 2 1 [3 0] [0 4]] (REQUEST)
r 1.004176558 _9_ MAC  --- 0 AODV 48 [0 ffffffff 5 800] [energy 99.998983] ------- [5:255 -1:255 29 0] [0x2 2 1 [3 0] [0 4]] (REQUEST)
r 1.004176595 _4_ MAC  --- 0 AODV 48 [0 ffffffff 5 800] [energy 99.998979] ------- [5:255 -1:255 29 0] [0x2 2 1 [3 0] [0 4]] (REQUEST)
r 1.004176610 _14_ MAC  --- 0 AODV 48 [0 ffffffff 5 800] [energy 99.998983] ------- [5:255 -1:255 29 0] [0x2 2 1 [3 0] [0 4]] (REQUEST)
r 1.004176702 _3_ MAC  --- 0 AODV 48 [0 ffffffff 5 800] [energy 99.998979] ------- [5:255 -1:255 29 0] [0x2 2 1 [3 0] [0 4]] (REQUEST)
r 1.004176835 _15_ MAC  --- 0 AODV 48 [0 ffffffff 5 800] [energy 99.998983] ------- [5:255 -1:255 29 0] [0x2 2 1 [3 0] [0 4]] (REQUEST)
r 1.004176863 _2_ MAC  --- 0 AODV 48 [0 ffffffff 5 800] [energy 99.998983] ------- [5:255 -1:255 29 0] [0x2 2 1 [3 0] [0 4]] (REQUEST)
r 1.004176875 _10_ MAC  --- 0 AODV 48 [0 ffffffff 5 800] [energy 99.998983] ------- [5:255 -1:255 29 0] [0x2 2 1 [3 0] [0 4]] (REQUEST)
r 1.004176885 _1_ MAC  --- 0 AODV 48 [0 ffffffff 5 800] [energy 99.998983] ------- [5:255 -1:255 29 0] [0x2 2 1 [3 0] [0 4]] (REQUEST)
r 1.004176905 _11_ MAC  --- 0 AODV 48 [0 ffffffff 5 800] [energy 99.998983] ------- [5:255 -1:255 29 0] [0x2 2 1 [3 0] [0 4]] (REQUEST)
r 1.004176911 _6_ MAC  --- 0 AODV 48 [0 ffffffff 5 800] [energy 99.998983] ------- [5:255 -1:255 29 0] [0x2 2 1 [3 0] [0 4]] (REQUEST)
r 1.004177037 _12_ MAC  --- 0 AODV 48 [0 ffffffff 5 800] [energy 99.998983] ------- [5:255 -1:255 29 0] [0x2 2 1 [3 0] [0 4]] (REQUEST)
r 1.004177045 _7_ MAC  --- 0 AODV 48 [0 ffffffff 5 800] [energy 99.998983] ------- [5:255 -1:255 29 0] [0x2 2 1 [3 0] [0 4]] (REQUEST)
r 1.004177066 _17_ MAC  --- 0 AODV 48 [0 ffffffff 5 800] [energy 99.998983] ------- [5:255 -1:255 29 0] [0x2 2 1 [3 0] [0 4]] (REQUEST)
r 1.004201528 _0_ RTR  --- 0 AODV 48 [0 ffffffff 5 800] [energy 99.998979] ------- [5:255 -1:255 29 0] [0x2 2 1 [3 0] [0 4]] (REQUEST)
r 1.004201558 _9_ RTR  --- 0 AODV 48 [0 ffffffff 5 800] [energy 99.998983] ------- [5:255 -1:255 29 0] [0x2 2 1 [3 0] [0 4]] (REQUEST)
r 1.004201595 _4_ RTR  --- 0 AODV 48 [0 ffffffff 5 800] [energy 99.998979] ------- [5:255 -1:255 29 0] [0x2 2 1 [3 0] [0 4]] (REQUEST)
r 1.004201610 _14_ RTR  --- 0 AODV 48 [0 ffffffff 5 800] [energy 99.998983] ------- [5:255 -1:255 29 0] [0x2 2 1 [3 0] [0 4]] (REQUEST)
r 1.004201702 _3_ RTR  --- 0 AODV 48 [0 ffffffff 5 800] [energy 99.998979] ------- [5:255 -1:255 29 0] [0x2 2 1 [3 0] [0 4]] (REQUEST)
r 1.004201835 _15_ RTR  --- 0 AODV 48 [0 ffffffff 5 800] [energy 99.998983] ------- [5:255 -1:255 29 0] [0x2 2 1 [3 0] [0 4]] (REQUEST)
r 1.004201863 _2_ RTR  --- 0 AODV 48 [0 ffffffff 5 800] [energy 99.998983] ------- [5:255 -1:255 29 0] [0x2 2 1 [3 0] [0 4]] (REQUEST)
r 1.004201875 _10_ RTR  --- 0 AODV 48 [0 ffffffff 5 800] [energy 99.998983] ------- [5:255 -1:255 29 0] [0x2 2 1 [3 0] [0 4]] (REQUEST)
r 1.004201885 _1_ RTR  --- 0 AODV 48 [0 ffffffff 5 800] [energy 99.998983] ------- [5:255 -1:255 29 0] [0x2 2 1 [3 0] [0 4]] (REQUEST)
r 1.004201905 _11_ RTR  --- 0 AODV 48 [0 ffffffff 5 800] [energy 99.998983] ------- [5:255 -1:255 29 0] [0x2 2 1 [3 0] [0 4]] (REQUEST)
r 1.004201911 _6_ RTR  --- 0 AODV 48 [0 ffffffff 5 800] [energy 99.998983] ------- [5:255 -1:255 29 0] [0x2 2 1 [3 0] [0 4]] (REQUEST)
r 1.004202037 _12_ RTR  --- 0 AODV 48 [0 ffffffff 5 800] [energy 99.998983] ------- [5:255 -1:255 29 0] [0x2 2 1 [3 0] [0 4]] (REQUEST)
r 1.004202045 _7_ RTR  --- 0 AODV 48 [0 ffffffff 5 800] [energy 99.998983] ------- [5:255 -1:255 29 0] [0x2 2 1 [3 0] [0 4]] (REQUEST)
r 1.004202066 _17_ RTR  --- 0 AODV 48 [0 ffffffff 5 800] [energy 99.998983] ------- [5:255 -1:255 29 0] [0x2 2 1 [3 0] [0 4]] (REQUEST)
s 1.004246528 _0_ MAC  --- 0 RTS 44 [4fe 3 0 0] [energy 99.998979] 
s 1.004247045 _7_ MAC  --- 0 AODV 100 [0 ffffffff 7 800] [energy 99.998983] ------- [7:255 -1:255 29 0] [0x2 2 1 [3 0] [0 4]] (REQUEST)
D 1.004247591 _3_ MAC  COL 0 RTS 44 [4fe 3 0 0] [energy 99.998975] 
s 1.004490197 _9_ RTR  --- 0 AODV 48 [0 ffffffff 0 800] [energy 99.998978] ------- [9:255 -1:255 29 0] [0x2 2 1 [3 0] [0 4]] (REQUEST)
s 1.004979541 _11_ RTR  --- 0 AODV 48 [0 ffffffff 4 800] [energy 99.998978] ------- [11:255 -1:255 28 0] [0x2 3 1 [3 0] [0 4]] (REQUEST)
D 1.005047239 _2_ MAC  COL 0 AODV 100 [0 ffffffff 7 800] [energy 99.998978] ------- [7:255 -1:255 29 0] [0x2 2 1 [3 0] [0 4]] (REQUEST)
D 1.005047279 _1_ MAC  COL 0 AODV 100 [0 ffffffff 7 800] [energy 99.998978] ------- [7:255 -1:255 29 0] [0x2 2 1 [3 0] [0 4]] (REQUEST)
r 1.005047301 _8_ MAC  --- 0 AODV 48 [0 ffffffff 7 800] [energy 99.998978] ------- [7:255 -1:255 29 0] [0x2 2 1 [3 0] [0 4]] (REQUEST)
r 1.005047327 _22_ MAC  --- 0 AODV 48 [0 ffffffff 7 800] [energy 99.998978] ------- [7:255 -1:255 29 0] [0x2 2 1 [3 0] [0 4]] (REQUEST)
D 1.005047442 _6_ MAC  COL 0 AODV 100 [0 ffffffff 7 800] [energy 99.998978] ------- [7:255 -1:255 29 0] [0x2 2 1 [3 0] [0 4]] (REQUEST)
D 1.005047495 _4_ MAC  COL 0 AODV 100 [0 ffffffff 7 800] [energy 99.998974] ------- [7:255 -1:255 29 0] [0x2 2 1 [3 0] [0 4]] (REQUEST)
D 1.005047591 _3_ MAC  COL 0 AODV 100 [0 ffffffff 7 800] [energy 99.998975] ------- [7:255 -1:255 29 0] [0x2 2 1 [3 0] [0 4]] (REQUEST)
D 1.005047616 _13_ MAC  COL 0 AODV 100 [0 ffffffff 7 800] [energy 99.998978] ------- [7:255 -1:255 29 0] [0x2 2 1 [3 0] [0 4]] (REQUEST)
D 1.005047642 _12_ MAC  COL 0 AODV 100 [0 ffffffff 7 800] [energy 99.998978] ------- [7:255 -1:255 29 0] [0x2 2 1 [3 0] [0 4]] (REQUEST)
r 1.005047675 _23_ MAC  --- 0 AODV 48 [0 ffffffff 7 800] [energy 99.998978] ------- [7:255 -1:255 29 0] [0x2 2 1 [3 0] [0 4]] (REQUEST)
D 1.005047823 _11_ MAC  COL 0 AODV 100 [0 ffffffff 7 800] [energy 99.998978] ------- [7:255 -1:255 29 0] [0x2 2 1 [3 0] [0 4]] (REQUEST)
r 1.005072301 _8_ RTR  --- 0 AODV 48 [0 ffffffff 7 800] [energy 99.998978] ------- [7:255 -1:255 29 0] [0x2 2 1 [3 0] [0 4]] (REQUEST)
r 1.005072327 _22_ RTR  --- 0 AODV 48 [0 ffffffff 7 800] [energy 99.998978] ------- [7:255 -1:255 29 0] [0x2 2 1 [3 0] [0 4]] (REQUEST)
r 1.005072675 _23_ RTR  --- 0 AODV 48 [0 ffffffff 7 800] [energy 99.998978] ------- [7:255 -1:255 29 0] [0x2 2 1 [3 0] [0 4]] (REQUEST)
s 1.005537327 _22_ MAC  --- 0 AODV 100 [0 ffffffff 16 800] [energy 99.998978] ------- [22:255 -1:255 28 0] [0x2 3 1 [3 0] [0 4]] (REQUEST)
s 1.005772212 _1_ RTR  --- 0 AODV 48 [0 ffffffff 0 800] [energy 99.998973] ------- [1:255 -1:255 29 0] [0x2 2 1 [3 0] [0 4]] (REQUEST)
s 1.005812590 _15_ RTR  --- 0 AODV 48 [0 ffffffff 4 800] [energy 99.998973] ------- [15:255 -1:255 28 0] [0x2 3 1 [3 0] [0 4]] (REQUEST)
r 1.006337547 _8_ MAC  --- 0 AODV 48 [0 ffffffff 16 800] [energy 99.998973] ------- [22:255 -1:255 28 0] [0x2 3 1 [3 0] [0 4]] (REQUEST)
r 1.006337610 _7_ MAC  --- 0 AODV 48 [0 ffffffff 16 800] [energy 99.998969] ------- [22:255 -1:255 28 0] [0x2 3 1 [3 0] [0 4]] (REQUEST)
r 1.006337698 _23_ MAC  --- 0 AODV 48 [0 ffffffff 16 800] [energy 99.998973] ------- [22:255 -1:255 28 0] [0x2 3 1 [3 0] [0 4]] (REQUEST)
r 1.006337756 _2_ MAC  --- 0 AODV 48 [0 ffffffff 16 800] [energy 99.998973] ------- [22:255 -1:255 28 0] [0x2 3 1 [3 0] [0 4]] (REQUEST)
r 1.006337764 _13_ MAC  --- 0 AODV 48 [0 ffffffff 16 800] [energy 99.998973] ------- [22:255 -1:255 28 0] [0x2 3 1 [3 0] [0 4]] (REQUEST)
r 1.006337811 _6_ MAC  --- 0 AODV 48 [0 ffffffff 16 800] [energy 99.998973] ------- [22:255 -1:255 28 0] [0x2 3 1 [3 0] [0 4]] (REQUEST)
r 1.006337843 _1_ MAC  --- 0 AODV 48 [0 ffffffff 16 800] [energy 99.998973] ------- [22:255 -1:255 28 0] [0x2 3 1 [3 0] [0 4]] (REQUEST)
r 1.006337931 _12_ MAC  --- 0 AODV 48 [0 ffffffff 16 800] [energy 99.998973] ------- [22:255 -1:255 28 0] [0x2 3 1 [3 0] [0 4]] (REQUEST)
r 1.006338024 _21_ MAC  --- 0 AODV 48 [0 ffffffff 16 800] [energy 99.998973] ------- [22:255 -1:255 28 0] [0x2 3 1 [3 0] [0 4]] (REQUEST)
r 1.006338029 _3_ MAC  --- 0 AODV 48 [0 ffffffff 16 800] [energy 99.998970] ------- [22:255 -1:255 28 0] [0x2 3 1 [3 0] [0 4]] (REQUEST)
r 1.006338030 _4_ MAC  --- 0 AODV 48 [0 ffffffff 16 800] [energy 99.998969] ------- [22:255 -1:255 28 0] [0x2 3 1 [3 0] [0 4]] (REQUEST)
r 1.006338036 _24_ MAC  --- 0 AODV 48 [0 ffffffff 16 800] [energy 99.998973] ------- [22:255 -1:255 28 0] [0x2 3 1 [3 0] [0 4]] (REQUEST)
r 1.006338124 _20_ MAC  --- 0 AODV 48 [0 ffffffff 16 800] [energy 99.998973] ------- [22:255 -1:255 28 0] [0x2 3 1 [3 0] [0 4]] (REQUEST)
r 1.006362547 _8_ RTR  --- 0 AODV 48 [0 ffffffff 16 800] [energy 99.998973] ------- [22:255 -1:255 28 0] [0x2 3 1 [3 0] [0 4]] (REQUEST)
r 1.006362610 _7_ RTR  --- 0 AODV 48 [0 ffffffff 16 800] [energy 99.998969] ------- [22:255 -1:255 28 0] [0x2 3 1 [3 0] [0 4]] (REQUEST)
r 1.006362698 _23_ RTR  --- 0 AODV 48 [0 ffffffff 16 800] [energy 99.998973] ------- [22:255 -1:255 28 0] [0x2 3 1 [3 0] [0 4]] (REQUEST)
r 1.006362756 _2_ RTR  --- 0 AODV 48 [0 ffffffff 16 800] [energy 99.998973] ------- [22:255 -1:255 28 0] [0x2 3 1 [3 0] [0 4]] (REQUEST)
r 1.006362764 _13_ RTR  --- 0 AODV 48 [0 ffffffff 16 800] [energy 99.998973] ------- [22:255 -1:255 28 0] [0x2 3 1 [3 0] [0 4]] (REQUEST)
r 1.006362811 _6_ RTR  --- 0 AODV 48 [0 ffffffff 16 800] [energy 99.998973] ------- [22:255 -1:255 28 0] [0x2 3 1 [3 0] [0 4]] (REQUEST)
r 1.006362843 _1_ RTR  --- 0 AODV 48 [0 ffffffff 16 800] [energy 99.998973] ------- [22:255 -1:255 28 0] [0x2 3 1 [3 0] [0 4]] (REQUEST)
r 1.006362931 _12_ RTR  --- 0 AODV 48 [0 ffffffff 16 800] [energy 99.998973] ------- [22:255 -1:255 28 0] [0x2 3 1 [3 0] [0 4]] (REQUEST)
r 1.006363024 _21_ RTR  --- 0 AODV 48 [0 ffffffff 16 800] [energy 99.998973] ------- [22:255 -1:255 28 0] [0x2 3 1 [3 0] [0 4]] (REQUEST)
r 1.006363029 _3_ RTR  --- 0 AODV 48 [0 ffffffff 16 800] [energy 99.998970] ------- [22:255 -1:255 28 0] [0x2 3 1 [3 0] [0 4]] (REQUEST)
r 1.006363030 _4_ RTR  --- 0 AODV 48 [0 ffffffff 16 800] [energy 99.998969] ------- [22:255 -1:255 28 0] [0x2 3 1 [3 0] [0 4]] (REQUEST)
r 1.006363036 _24_ RTR  --- 0 AODV 48 [0 ffffffff 16 800] [energy 99.998973] ------- [22:255 -1:255 28 0] [0x2 3 1 [3 0] [0 4]] (REQUEST)
r 1.006363124 _20_ RTR  --- 0 AODV 48 [0 ffffffff 16 800] [energy 99.998973] ------- [22:255 -1:255 28 0] [0x2 3 1 [3 0] [0 4]] (REQUEST)
s 1.006687843 _1_ MAC  --- 0 AODV 100 [0 ffffffff 1 800] [energy 99.998973] ------- [1:255 -1:255 29 0] [0x2 2 1 [3 0] [0 4]] (REQUEST)
s 1.006719069 _13_ RTR  --- 0 AODV 48 [0 ffffffff 4 800] [energy 99.998968] ------- [13:255 -1:255 28 0] [0x2 3 1 [3 0] [0 4]] (REQUEST)
s 1.007455021 _24_ RTR  --- 0 AODV 48 [0 ffffffff 16 800] [energy 99.998968] ------- [24:255 -1:255 27 0] [0x2 4 1 [3 0] [0 4]] (REQUEST)
s 1.007468054 _12_ RTR  --- 0 AODV 48 [0 ffffffff 4 800] [energy 99.998968] ------- [12:255 -1:255 28 0] [0x2 3 1 [3 0] [0 4]] (REQUEST)
r 1.007488054 _2_ MAC  --- 0 AODV 48 [0 ffffffff 1 800] [energy 99.998968] ------- [1:255 -1:255 29 0] [0x2 2 1 [3 0] [0 4]] (REQUEST)
r 1.007488077 _7_ MAC  --- 0 AODV 48 [0 ffffffff 1 800] [energy 99.998964] ------- [1:255 -1:255 29 0] [0x2 2 1 [3 0] [0 4]] (REQUEST)
r 1.007488151 _4_ MAC  --- 0 AODV 48 [0 ffffffff 1 800] [energy 99.998964] ------- [1:255 -1:255 29 0] [0x2 2 1 [3 0] [0 4]] (REQUEST)
r 1.007488300 _8_ MAC  --- 0 AODV 48 [0 ffffffff 1 800] [energy 99.998968] ------- [1:255 -1:255 29 0] [0x2 2 1 [3 0] [0 4]] (REQUEST)
r 1.007488321 _0_ MAC  --- 0 AODV 48 [0 ffffffff 1 800] [energy 99.998963] ------- [1:255 -1:255 29 0] [0x2 2 1 [3 0] [0 4]] (REQUEST)
r 1.007488327 _6_ MAC  --- 0 AODV 48 [0 ffffffff 1 800] [energy 99.998968] ------- [1:255 -1:255 29 0] [0x2 2 1 [3 0] [0 4]] (REQUEST)
r 1.007488359 _22_ MAC  --- 0 AODV 48 [0 ffffffff 1 800] [energy 99.998964] ------- [1:255 -1:255 29 0] [0x2 2 1 [3 0] [0 4]] (REQUEST)
r 1.007488375 _3_ MAC  --- 0 AODV 48 [0 ffffffff 1 800] [energy 99.998965] ------- [1:255 -1:255 29 0] [0x2 2 1 [3 0] [0 4]] (REQUEST)
r 1.007488488 _5_ MAC  --- 0 AODV 48 [0 ffffffff 1 800] [energy 99.998964] ------- [1:255 -1:255 29 0] [0x2 2 1 [3 0] [0 4]] (REQUEST)
r 1.007488548 _12_ MAC  --- 0 AODV 48 [0 ffffffff 1 800] [energy 99.998968] ------- [1:255 -1:255 29 0] [0x2 2 1 [3 0] [0 4]] (REQUEST)
r 1.007488603 _13_ MAC  --- 0 AODV 48 [0 ffffffff 1 800] [energy 99.998968] ------- [1:255 -1:255 29 0] [0x2 2 1 [3 0] [0 4]] (REQUEST)
r 1.007488623 _9_ MAC  --- 0 AODV 48 [0 ffffffff 1 800] [energy 99.998968] ------- [1:255 -1:255 29 0] [0x2 2 1 [3 0] [0 4]] (REQUEST)
r 1.007488656 _11_ MAC  --- 0 AODV 48 [0 ffffffff 1 800] [energy 99.998968] ------- [1:255 -1:255 29 0] [0x2 2 1 [3 0] [0 4]] (REQUEST)